HEADER
"PSFversion" "1.00"
"Log Generator" "drlLog rev. 1.0"
"Log Time Stamp" "Tue Dec  1 11:23:02 2020"
"simulator" "ams"
"version" "18.1.0.394.isr8"
"date" "11:23:02 AM, Tue Dec 1, 2020"
"design" "(no title)"
"signalNameType" "spectre"
"simMode" "Mixed-signal"
"measdgt" 0
"ingold" 2
"sst2usecolon" 0
