HEADER
"PSFversion" "1.00"
"Log Generator" "drlLog rev. 1.0"
"Log Time Stamp" "Mon Dec  7 12:50:26 2020"
"simulator" "ams"
"version" "18.1.0.394.isr8"
"date" "12:50:26 PM, Mon Dec 7, 2020"
"design" "(no title)"
"signalNameType" "spectre"
"simMode" "Mixed-signal"
"measdgt" 0
"ingold" 2
"sst2usecolon" 0
