HEADER
"PSFversion" "1.00"
"Log Generator" "drlLog rev. 1.0"
"Log Time Stamp" "Sat Nov 28 22:39:16 2020"
"simulator" "ams"
"version" "18.1.0.394.isr8"
"date" "10:39:16 PM, Sat Nov 28, 2020"
"design" "(no title)"
"signalNameType" "spectre"
"simMode" "Mixed-signal"
"measdgt" 0
"ingold" 2
"sst2usecolon" 0
